# vtk DataFile Version 5.1
vtk output
ASCII
DATASET STRUCTURED_GRID
DIMENSIONS 0 0 0
POINTS 7191 float
0.0293423 -0.0223364 -0.491186 0.029273 -0.0222586 -0.491073 0.0294377 -0.0222538 -0.491084 
0.0293684 -0.0221824 -0.490975 0.0291743 -0.0223497 -0.491171 0.0290961 -0.0222703 -0.491052 
0.0289292 -0.0222973 -0.491029 0.0290232 -0.0222033 -0.490933 0.0291308 -0.0221196 -0.490828 
0.0289603 -0.0221353 -0.490799 0.0292947 -0.022114 -0.490849 0.029457 -0.0221108 -0.490861 
0.0292475 -0.0220508 -0.49071 0.0295338 -0.0221781 -0.490974 0.0335277 -0.0238021 -0.489281 
0.0335403 -0.0236315 -0.489425 0.0334992 -0.0236055 -0.489252 0.0335498 -0.0239831 -0.489369 
0.0335229 -0.0239315 -0.489215 0.0335613 -0.0237231 -0.489647 0.033555 -0.0238404 -0.489442 
0.0307794 -0.023946 -0.492246 0.0306977 -0.0238138 -0.49225 0.030856 -0.0237645 -0.492229 
0.0306234 -0.0239539 -0.492255 0.0306894 -0.0236294 -0.492237 0.0305041 -0.023793 -0.492256 
0.0263313 -0.0254536 -0.484835 0.0263099 -0.0252754 -0.484866 0.0264173 -0.0253741 -0.484954 
0.0262217 -0.02536 -0.484749 0.0264109 -0.0251897 -0.484971 0.0263136 -0.0250919 -0.484872 
0.0262144 -0.0251796 -0.484765 0.0262506 -0.0255274 -0.48471 0.0261248 -0.025268 -0.484651 
0.0261466 -0.0254396 -0.484626 0.0262299 -0.0250006 -0.484759 0.0261278 -0.0250908 -0.484652 
0.0260372 -0.0251924 -0.484532 0.0260516 -0.0253518 -0.484528 0.0275423 -0.0238613 -0.4895 
0.027489 -0.0237922 -0.489385 0.0275592 -0.0236871 -0.489532 0.0274249 -0.0239203 -0.489259 
0.0274833 -0.0239684 -0.489393 0.027501 -0.0236082 -0.489363 0.0274417 -0.023744 -0.489236 
0.0276191 -0.0238602 -0.489639 0.0276337 -0.0236943 -0.489679 0.0276223 -0.0235425 -0.48965 
0.0275658 -0.0234924 -0.489496 0.0305308 -0.0268195 -0.489253 0.0307247 -0.0268163 -0.489282 
0.0306397 -0.0268851 -0.489143 0.0305789 -0.0267542 -0.489382 0.0308071 -0.0268875 -0.489149 
0.0309168 -0.0268317 -0.489257 0.0308697 -0.0267622 -0.489389 0.0309825 -0.0266989 -0.489499 
0.0308038 -0.026694 -0.48951 0.0306384 -0.0266877 -0.489508 0.0304667 -0.0266891 -0.489486 
0.0307187 -0.0266229 -0.489624 0.0306475 -0.0269 -0.486558 0.0306134 -0.0268673 -0.486396 
0.0304974 -0.0268645 -0.486466 0.0307703 -0.0268736 -0.4864 0.030665 -0.0268614 -0.486248 
0.0305034 -0.0268479 -0.486297 0.0321666 -0.0253597 -0.485128 0.0322374 -0.0252915 -0.48499 
0.032325 -0.025385 -0.485089 0.0324113 -0.0252937 -0.484972 0.0320724 -0.0252724 -0.48502 
0.0321375 -0.0252159 -0.484881 0.0283117 -0.0258734 -0.484026 0.0282374 -0.0259963 -0.484109 
0.0284135 -0.0259687 -0.484121 0.0283392 -0.0261007 -0.48424 0.0281512 -0.0260984 -0.484208 
0.028158 -0.025902 -0.483989 0.0299717 -0.0244934 -0.484234 0.0298523 -0.0246066 -0.484167 
0.0300093 -0.0246371 -0.48419 0.0298088 -0.0244579 -0.48421 0.0298906 -0.0247538 -0.484124 
0.0297635 -0.0247125 -0.48412 0.0296947 -0.0245754 -0.484154 0.03013 -0.0245253 -0.484269 
0.0300679 -0.0247826 -0.484147 0.0314927 -0.0242907 -0.485571 0.0315918 -0.0243734 -0.485658 
0.0315932 -0.0241945 -0.485654 0.0316981 -0.0244525 -0.485746 0.0315929 -0.0245472 -0.485642 
0.031401 -0.0243761 -0.485473 0.0313971 -0.024203 -0.485482 0.0313243 -0.0244541 -0.485359 
0.0314143 -0.0245439 -0.485445 0.0314379 -0.024692 -0.485411 0.0315338 -0.0247791 -0.485495 
0.0315085 -0.0246153 -0.485533 0.0313505 -0.0246078 -0.485329 0.0315782 -0.0228002 -0.485806 
0.0315792 -0.0229689 -0.485723 0.0316932 -0.0229477 -0.485866 0.0314655 -0.0228747 -0.485652 
0.031668 -0.0230734 -0.485773 0.031593 -0.0231293 -0.485682 0.0314051 -0.0233027 -0.485483 
0.0315011 -0.0232209 -0.485581 0.0313832 -0.0231286 -0.485499 0.0316132 -0.0233206 -0.485667 
0.032865 -0.026216 -0.48865 0.0329164 -0.026107 -0.488723 0.0329774 -0.0261143 -0.488598 
0.0329124 -0.0260245 -0.488827 0.0330348 -0.0258606 -0.488805 0.0330136 -0.0259894 -0.488694 
0.0329286 -0.0259033 -0.488939 0.0328324 -0.0259903 -0.488993 0.0327608 -0.0261244 -0.48894 
0.0331535 -0.0260119 -0.488383 0.0330464 -0.0261172 -0.488462 0.0330957 -0.0259877 -0.488536 
0.0330167 -0.0262166 -0.488362 0.0331078 -0.0261296 -0.488308 0.0329251 -0.0262477 -0.488485 
0.0324443 -0.0267639 -0.483108 0.0322658 -0.0267452 -0.483134 0.0323219 -0.0269062 -0.483159 
0.0321531 -0.0268814 -0.483187 0.0321068 -0.0267184 -0.483163 0.0321988 -0.0265799 -0.483129 
0.032041 -0.0270073 -0.48326 0.0319913 -0.0268475 -0.483223 0.0322095 -0.0270376 -0.483227 
0.0327599 -0.0274875 -0.484194 0.0328924 -0.0274413 -0.484141 0.0327545 -0.0274988 -0.484039 
0.0329024 -0.0274421 -0.48399 0.0330077 -0.0273776 -0.484254 0.0328678 -0.0274312 -0.484305 
0.0333225 -0.0246159 -0.487206 0.0332388 -0.0245126 -0.487102 0.0332679 -0.0246688 -0.487065 
0.033287 -0.0244614 -0.487248 0.0331504 -0.0244093 -0.487001 0.0332002 -0.0243588 -0.487142 
0.0331803 -0.0245669 -0.486962 0.0330542 -0.0243143 -0.486907 0.0331077 -0.0242546 -0.487047 
0.0330883 -0.0244672 -0.48687 0.0323444 -0.0234658 -0.486441 0.0322757 -0.0235344 -0.486319 
0.0323821 -0.0236235 -0.486411 0.0323108 -0.0236957 -0.486294 0.0321975 -0.0236063 -0.486203 
0.0321701 -0.023441 -0.48623 0.0323337 -0.0238608 -0.486266 0.0324114 -0.023779 -0.486377 
0.0324879 -0.0237128 -0.486497 0.0325268 -0.0238728 -0.486465 0.0324396 -0.0239434 -0.486346 
0.0322174 -0.0237748 -0.486177 0.0322355 -0.0239496 -0.486161 0.0323565 -0.0240395 -0.486246 
0.0321259 -0.0238623 -0.48608 0.0321066 -0.0236789 -0.486093 0.0321489 -0.0268867 -0.48814 
0.0322848 -0.0268278 -0.488082 0.0321716 -0.0269034 -0.487955 0.0323044 -0.0268391 -0.487918 
0.0324134 -0.0267657 -0.488025 0.0323911 -0.0267508 -0.488189 0.0324354 -0.02677 -0.487855 
0.0322109 -0.0268994 -0.48777 0.0323446 -0.0268271 -0.487774 0.0325538 -0.0267008 -0.487773 
0.0325346 -0.0267007 -0.48795 0.0324413 -0.0267715 -0.48769 0.0320833 -0.0269603 -0.487851 
0.0323227 -0.0268402 -0.487631 0.0321931 -0.0269094 -0.487577 0.0331408 -0.0259717 -0.48707 
0.0331202 -0.0261081 -0.48722 0.0332347 -0.0259284 -0.487251 0.0332072 -0.0260406 -0.487362 
0.0331404 -0.0261536 -0.487403 0.0330422 -0.0262519 -0.48732 0.0329998 -0.0262451 -0.487169 
0.033011 -0.0261414 -0.487027 0.0328988 -0.0263009 -0.487068 0.0329281 -0.0260975 -0.486834 
0.0330593 -0.0259739 -0.486913 0.033225 -0.0258313 -0.487109 0.0329329 -0.0263449 -0.487232 
0.0315866 -0.0261409 -0.490072 0.0316774 -0.0260523 -0.490159 0.0317471 -0.0261091 -0.490041 
0.0317822 -0.0259617 -0.490263 0.0316165 -0.0259812 -0.490291 0.0302099 -0.026186 -0.490108 
0.0300423 -0.0261664 -0.49009 0.030122 -0.0260777 -0.4902 0.0298808 -0.0261444 -0.490068 
0.0299657 -0.0262547 -0.489981 0.0297221 -0.0261133 -0.490043 0.0297978 -0.026027 -0.490153 
0.0298813 -0.0259453 -0.490258 0.0297246 -0.025913 -0.49023 0.0302095 -0.0259961 -0.490304 
0.030044 -0.0259731 -0.490283 0.0302913 -0.0260989 -0.490214 0.0299589 -0.0258624 -0.490363 
0.028308 -0.0261921 -0.485548 0.0283701 -0.026119 -0.485674 0.0284503 -0.026236 -0.48559 
0.0284404 -0.0260418 -0.4858 0.0283021 -0.0259997 -0.485752 0.0285132 -0.0261672 -0.485718 
0.0282277 -0.0260767 -0.48563 0.0285043 -0.0262109 -0.488423 0.0283989 -0.0261145 -0.488562 
0.0285451 -0.0262321 -0.488612 0.0284727 -0.0261644 -0.488745 0.0282828 -0.0260117 -0.48845 
0.0283856 -0.0261098 -0.488349 0.0282809 -0.0259998 -0.488628 0.0283592 -0.026065 -0.488715 
0.028281 -0.0259806 -0.488788 0.0283872 -0.0260705 -0.488858 0.0284978 -0.0261572 -0.488918 
0.0281881 -0.0258998 -0.48871 0.0281854 -0.0259124 -0.488535 0.0291455 -0.0266457 -0.487849 
0.0292548 -0.0267253 -0.48796 0.0292819 -0.0267184 -0.487786 0.0291308 -0.0266572 -0.488029 
0.0293822 -0.0267912 -0.487882 0.029369 -0.0267952 -0.488048 0.0292289 -0.0267184 -0.48816 
0.0294026 -0.0267786 -0.48772 0.0295003 -0.0268529 -0.487811 0.0294836 -0.0268549 -0.487956 
0.0293066 -0.0266989 -0.487625 0.0291759 -0.0266323 -0.487684 0.0290202 -0.0265774 -0.487918 
0.029099 -0.026644 -0.488162 0.0284293 -0.0258471 -0.487322 0.0284746 -0.025802 -0.487174 
0.0283524 -0.0257225 -0.487252 0.0285543 -0.0259282 -0.487246 0.0285976 -0.0258795 -0.487098 
0.028517 -0.025759 -0.487028 0.0286773 -0.026005 -0.487174 0.0286382 -0.0260629 -0.487325 
0.028512 -0.0259797 -0.487397 0.0287625 -0.0261368 -0.487253 0.0287208 -0.0259553 -0.487025 
0.0283085 -0.0244458 -0.490291 0.0284208 -0.0245345 -0.490355 0.028326 -0.024612 -0.490245 
0.028392 -0.0243659 -0.4904 0.028536 -0.0245751 -0.49043 0.0285037 -0.0244345 -0.490468 
0.0284975 -0.0247094 -0.490339 0.0281374 -0.0245916 -0.490073 0.0282217 -0.0245155 -0.490181 
0.0282345 -0.024647 -0.490146 0.0281973 -0.0243639 -0.490213 0.0281154 -0.0244391 -0.490101 
0.0283231 -0.0247873 -0.490169 0.0278861 -0.0253479 -0.48936 0.0277874 -0.0251834 -0.489377 
0.0279075 -0.0252438 -0.489491 0.0276608 -0.0251014 -0.489247 0.0277543 -0.0252852 -0.489206 
0.0276148 -0.0251427 -0.489084 0.0277085 -0.0250117 -0.489405 0.0279836 -0.0253643 -0.489477 
0.0280267 -0.0253021 -0.489592 0.0279591 -0.0251494 -0.489635 0.0275956 -0.02495 -0.489264 
0.0276619 -0.0237107 -0.484994 0.0277413 -0.0236087 -0.484893 0.0277098 -0.0235603 -0.485052 
0.0277774 -0.0234581 -0.484935 0.027843 -0.0235253 -0.484799 0.027802 -0.0236695 -0.484759 
0.0278724 -0.0237404 -0.484635 0.0277415 -0.0238011 -0.484695 0.0279239 -0.0236041 -0.484687 
0.0275888 -0.0238362 -0.484925 0.0275785 -0.0238203 -0.485092 0.0276185 -0.0238643 -0.484769 
0.0275009 -0.0239433 -0.484841 0.0269965 -0.0261095 -0.484364 0.0270327 -0.0261211 -0.484157 
0.0268679 -0.0260997 -0.484223 0.0272021 -0.0261235 -0.484061 0.027188 -0.0261293 -0.484263 
0.0268483 -0.0260816 -0.484372 0.0300552 -0.0230893 -0.49197 0.0299482 -0.0229874 -0.491892 
0.0301107 -0.0229598 -0.491909 0.0300167 -0.0228525 -0.491823 0.0297928 -0.0230369 -0.491873 
0.0299012 -0.0231449 -0.49194 0.0313655 -0.0245848 -0.491781 0.0314657 -0.0246832 -0.491686 
0.0313078 -0.0247275 -0.491722 0.0314068 -0.024828 -0.491625 0.0315669 -0.024791 -0.491589 
0.031618 -0.0246391 -0.491637 0.0315153 -0.0245412 -0.491725 0.0314137 -0.0244314 -0.491824 
[...]
POINT_DATA 7191
FIELD FieldData 1
Pressure 1 7191 float
129.049 129.148 128.983 129.081 129.164 129.271 129.37 129.383 129.358 
129.51 129.183 128.953 129.272 128.836 118.868 118.589 118.361 119.56 
119.208 119.167 119.189 126.897 127.014 126.844 127.069 127.063 127.231 
105.662 105.918 105.947 105.695 106.138 106.064 105.915 105.387 105.741 
105.495 106.017 105.902 105.773 105.598 128.862 128.903 129.309 128.415 
128.457 129.339 128.838 129.024 129.39 129.671 129.706 127.538 128.519 
128.421 127.507 129.287 129.622 129.062 129.339 128.522 127.64 126.84 
127.966 126.13 126.269 125.336 127.613 126.97 125.794 108.25 108.24 
107.795 107.892 108.6 108.587 106.573 106.659 110.402 110.037 106.473 
102.473 114.204 114.48 114.669 113.957 115.002 114.778 114.252 114.355 
115.113 124.96 124.522 127.245 124.5 121.424 121.453 125.787 117.462 
117.271 113.461 113.957 117.543 113.421 128.757 129.355 129.254 128.736 
129.72 130.008 130.536 130.338 129.606 130.683 149.413 148.589 150.913 
145.707 145.471 149.03 142.667 141.126 142.963 153.051 152.837 151.618 
153.416 153.647 151.99 124.252 123.462 125.218 124.371 122.691 121.488 
125.056 123.426 125.902 129.689 129.716 129.488 129.522 129.347 129.688 
137.816 136.909 138.324 136.304 135.899 135.377 137.346 134.869 134.393 
136.284 128.618 128.809 128.937 128.99 128.902 128.891 129.232 129.305 
129.242 129.91 129.833 128.943 129.007 129.612 128.876 129.017 142.169 
144.476 143.195 145.329 146.711 145.776 147.365 144.128 146.099 149.092 
148.78 147.593 141.953 145.899 144.012 147.048 148.424 147.765 148.909 
149.652 149.45 148.6 147.544 148.291 146.572 146.268 146.501 149.205 
127.986 127.561 127.923 127.296 127.136 126.646 126.572 126.551 126.518 
126.519 126.403 126.514 126.539 126.482 126.465 126.53 126.564 126.498 
112.228 112.65 113.308 113.056 112.145 113.678 111.687 121.353 121.874 
122.027 122.556 121.491 121.12 122.137 122.472 122.75 122.996 123.157 
122.457 121.822 120.013 120.585 120.197 120.476 120.86 121.219 121.043 
120.57 121.353 121.598 119.892 119.631 119.998 120.818 118.059 117.612 
117.892 117.85 117.408 117.167 117.7 118.146 118.302 118.005 117.292 
128.139 127.963 127.913 128.177 127.825 128.019 127.689 127.919 128.078 
127.862 128.269 128.153 127.634 125.153 125.513 125.676 125.428 124.923 
124.94 125.939 125.412 125.834 126.182 125.822 107.774 107.738 108.302 
107.889 107.575 107.411 107.103 106.929 107.298 107.139 107.716 106.675 
106.502 101.782 99.735 101.058 97.9874 100.502 102.299 127.917 128.093 
127.911 128.092 128.248 128.073 125.553 125.385 125.608 125.511 125.387 
125.222 125.313 125.536 125.811 125.815 125.001 125.27 125.216 125.105 
125.53 127.402 127.456 127.357 127.5 127.53 127.424 127.328 127.33 
127.269 127.252 127.318 127.209 127.132 127.296 127.07 127.014 117.089 
117.224 117.049 117.3 117.482 117.242 117.86 117.513 117.671 117.4 
117.983 117.751 117.789 118.062 118.071 124.247 124.175 123.605 124.655 
124.782 124.01 123.262 123.589 125.263 125.353 125.787 124.859 124.328 
123.055 122.816 123.052 123.809 123.268 124.106 124.647 123.603 124.188 
123.497 122.932 125.196 124.958 125.776 124.834 92.6831 90.9187 96.4833 
95.3833 90.4284 89.2036 117.438 117.292 117.123 117.051 117.229 117.509 
118.389 117.919 118.079 118.25 117.776 118.56 118.305 121.639 121.183 
121.808 120.727 120.575 121.388 119.705 119.629 119.843 119.486 119.106 
125.959 126.314 127.389 127.181 126.234 125.169 123.752 123.643 107.053 
108.835 108.508 107.589 109.154 110.012 110.1 112.17 110.694 111.493 
108.66 106.444 107.321 110.163 110.631 112.024 113.113 112.996 113.988 
114.139 112.905 120.094 121.095 119.467 123.773 122.608 122.026 119.709 
121.521 120.539 122.204 118.816 117.553 117.811 120.1 121.513 105.122 
105.156 103.871 103.894 108.346 107.725 104.524 106.392 113.362 111.84 
110.285 109.142 106.42 108.886 107.561 111.875 110.531 107.605 120.971 
118.405 120.448 115.033 116.583 111.069 110.827 109.041 109.391 112.559 
111.231 123.761 123.107 123.335 122.708 123.555 122.904 122.457 123.38 
122.752 124.078 124.101 123.749 129.011 128.896 128.91 128.771 128.87 
128.663 128.629 128.517 128.423 128.506 128.68 79.3189 82.6601 77.6784 
90.0123 91.241 77.5055 81.3037 80.2736 89.1081 116.879 116.921 116.864 
117.2 117.163 117.367 117.134 129.226 128.837 127.985 127.797 128.455 
129.557 126.269 127.035 127.012 127.01 127.601 125.996 125.512 126.304 
125.525 124.792 124.926 124.505 123.601 123.308 122.031 123.906 123.953 
122.918 120.41 119.186 120.66 118.696 117.813 117.802 119.329 118.769 
119.944 119.645 121.862 120.779 120.607 119.945 121.587 118.108 116.3 
116.99 115.585 114.354 115.546 114.947 117.471 119.569 119.793 122.032 
119.948 120.136 122.188 121.471 122.514 120.566 121.303 121.618 120.721 
122.961 122.865 123.789 123.547 122.434 121.818 120.924 123.373 119.676 
119.155 119.858 119.353 118.981 118.56 119.48 118.836 120.276 120.056 
119.325 120.483 121.697 120.712 121.468 121.038 120.073 119.819 122.064 
122.804 122.35 121.763 122.476 121.545 122.309 122.589 123.341 123.269 
123.058 124.154 124.214 122.115 123.701 121.389 126.552 126.259 125.878 
125.918 126.727 127.03 125.102 124.882 124.306 124.47 125.415 124.302 
123.568 124.345 123.153 122.745 122.558 123.293 122.906 123.812 122.601 
124.124 126.891 127.441 127.053 126.547 126.448 125.866 125.675 126.151 
125.541 126.382 125.711 127.111 126.917 127.215 127.625 125.04 125.895 
124.902 136.902 140.153 136.991 141.266 142.539 139.29 133.276 132.078 
134.612 129.815 136.32 140.079 143.329 131.644 133.79 137.454 118.877 
119.434 119.218 119.704 120.051 120.257 119.743 119.146 120.323 120.085 
119.614 120.679 120.97 118.822 125.802 123.482 125.653 122.095 122.576 
123.862 121.109 121.645 120.904 121.394 122.711 128.817 126.1 128.927 
125.058 117.241 117.266 117.096 117.288 117.525 117.469 117.797 117.71 
118.171 118.035 118.012 118.403 118.057 117.736 117.488 117.787 118.093 
117.237 119.115 118.977 119.653 119.459 118.52 118.809 118.399 118.275 
119.857 119.293 118.645 120.188 120.428 120.983 117.792 117.443 117.379 
117.121 117.172 117.529 116.947 117.103 116.942 117.004 116.857 116.957 
127.129 126.987 127.558 126.66 127.618 127.382 127.901 128.039 126.824 
127.218 126.325 126.477 126.939 119.365 119.911 119.111 119.836 120.383 
120.496 119.38 119.424 119.538 119.07 119.241 119.455 119.938 121.144 
120.563 120.519 120.106 120.054 120.388 120.42 120.013 121.028 119.738 
119.798 119.598 119.394 119.54 123.229 122.003 122.569 121.821 120.831 
121.493 123.328 124.151 121.387 122.814 120.184 120.009 125.373 124.207 
123.965 122.906 88.1192 86.6174 83.9891 85.4419 93.4486 94.1691 81.88 
102.214 102.766 94.352 119.226 114.041 119.334 107.781 107.303 122.437 
119.601 122.58 100.353 99.626 108.506 115.179 109.265 119.988 115.887 
110.13 119.811 114.621 119.33 107.79 109.694 104.539 113.478 100.689 
117.765 120.017 123.286 123.868 122.695 123.049 89.6241 95.1178 96.7022 
85.6876 105.285 106.934 99.5263 88.803 98.5852 105.669 90.9116 112.928 
113.747 113.474 117.54 113.824 100.751 108.343 102.958 106.9 84.1635 
82.9982 82.9576 82.0072 89.776 88.8118 89.4369 88.6172 88.5844 91.0138 
89.862 91.1213 92.0477 90.6996 130.335 130.655 130.767 130.971 130.394 
130.048 130.907 129.603 129.979 130.685 129.735 129.864 130.474 129.135 
125.362 125.619 126.282 125.861 124.81 126.843 127.203 128.198 127.48 
128.266 127.721 126.824 125.83 126.058 124.694 126.092 127.178 127.095 
125.375 128.439 128.417 128.301 128.045 129.065 129.377 129.564 123.358 
123.584 124.35 123.776 122.968 122.235 122.503 123.103 122.152 121.844 
122.588 122.411 122.142 121.788 122.928 122.961 123.892 122.054 121.806 
121.056 117.905 120.347 122.009 122.396 121.222 130.585 130.519 130.714 
130.337 130.195 130.506 130.837 129.928 130.203 129.316 129.017 128.521 
129.593 130.053 127.521 124.355 122.948 124.492 126.534 125.547 126.904 
127.55 128.127 126.942 128.43 125.624 122.839 121.631 127.235 128.857 
123.489 126.561 124.943 127.639 125.287 129.01 127.636 128.214 126.066 
123.329 124.583 121.698 119.841 113.904 116.934 118.236 120.739 119.521 
112.742 116.164 115.758 108.886 110.755 120.12 117.887 121.707 130.49 
130.914 130.945 130.389 131.09 130.979 130.869 131.122 130.429 131.074 
131.112 131.059 130.974 110.778 116.912 116.544 111.342 117.081 120.496 
120.559 122.006 120.515 122.142 111.523 104.505 103.623 116.994 120.316 
122.912 123.409 123.043 123.38 123.952 123.623 123.037 120.64 119.761 
120.989 118.487 119.341 119 120.25 121.794 121.508 121.989 122.749 
122.578 123.482 122.3 122.606 123.002 121.844 120.799 120.191 123.438 
123.724 123.956 119.877 119.474 118.705 120.27 120.724 119.059 118.368 
121.546 121.134 121.954 123.171 123.176 123.772 122.737 122.665 122.665 
122.516 123.055 122.473 123.673 123.52 124.077 123.914 123.734 124.238 
93.471 94.8326 93.0654 98.3687 97.8426 92.7326 92.4859 93.1255 91.5928 
93.8653 92.0838 92.7799 97.937 98.3591 104.246 103.579 100.148 97.5768 
94.6557 94.5339 99.2206 124.546 124.958 125.204 125.672 124.127 125.553 
124.513 124.605 125.256 125.352 126.156 124.381 124.972 125.861 124.194 
124.907 125.789 126.477 122.937 123.517 122.873 123.474 124.136 123.616 
125.504 124.852 125.551 124.801 124.945 125.615 125.051 124.348 118.343 
118.044 118.507 117.959 117.746 117.934 120.275 119.757 120.229 119.726 
119.279 119.341 119.828 119.462 120.344 119.288 119.114 119.004 118.743 
119.108 128.265 128.2 128.018 128.219 128.353 128.009 128.061 128.37 
128.242 128.095 128.123 126.799 126.638 126.751 126.901 126.965 126.999 
127.16 127.147 126.632 126.55 126.523 126.599 126.797 126.968 126.593 
127.521 127.609 127.7 127.514 127.747 127.833 127.885 127.653 127.612 
127.771 127.387 127.466 127.823 127.679 127.547 127.937 127.72 127.365 
127.504 126.962 126.868 127.633 127.103 126.246 126.369 127.358 127.889 
127.71 127.195 126.785 126.196 128.048 126.64 126.591 126.967 126.173 
126.177 126.588 126.94 126.708 127.053 126.182 128.368 128.241 128.251 
128.122 128.096 128.342 128.831 128.794 128.721 128.747 128.86 128.613 
128.676 128.804 128.63 128.615 128.495 128.461 128.526 129.949 130.054 
129.891 130.011 130.203 130.175 130.173 94.6473 100.202 98.2389 103.934 
101.845 107.51 107.271 107.584 107.424 107.101 106.967 107.043 107.985 
107.785 105.593 105.706 105.452 105.913 105.857 105.881 105.1 105.337 
105.252 110.138 109.601 110.316 109.38 109.8 109.037 108.843 110.614 
110.774 110.88 110.197 112.867 112.203 112.826 112.195 112.266 111.644 
111.204 111.129 111.697 110.549 110.651 109.951 109.81 109.807 110.351 
109.184 109.095 109.928 110.743 110.471 111.246 111.785 111.711 112.382 
112.486 111.84 111.381 111.118 121.642 122.273 121.751 121.723 122.783 
122.377 122.539 123.219 122.995 121.448 121.816 121.155 121.57 122.11 
121.05 117.064 117.157 117.366 117.361 116.965 117.094 118.213 117.654 
125.106 125.466 125.821 126.573 126.378 126.939 125.932 125.819 124.52 
125.201 125.457 124.996 126.587 123.85 124.307 123.457 124.157 123.645 
124.463 125.737 124.843 125.117 123.822 124.513 126.191 126.511 125.053 
124.152 124.672 125.474 125.848 123.5 117.221 118.204 118.155 119.165 
118.26 118.163 118.976 119.98 120.087 119.737 119.865 118.903 120.598 
120.737 116.743 116.537 117.414 116.336 115.569 116.175 116.926 117.468 
114.753 114.727 115.353 115.708 115.281 114.375 114.6 104.562 104.147 
103.206 103.132 105.068 105.307 102.16 102.585 103.594 105.123 105.842 
104.522 105.35 105.024 104.277 106.529 107.12 106.717 107.671 107.644 
106.46 106.932 127.687 127.932 127.185 127.994 128.68 129.711 129.268 
129.154 129.375 128.277 128.955 127.322 126.744 126.182 126.524 125.841 
126.558 125.849 125.468 127.218 127.228 122.384 122.852 122.882 122.489 
123.165 123.349 127.464 127.445 127.621 127.378 119.058 119.054 118.599 
118.62 119.489 119.486 118.155 118.23 117.779 119.494 119.925 119.119 
119.533 116.107 116.542 116.178 116.697 116.91 116.551 116.967 116.228 
115.69 115.646 118.566 118.836 118.919 118.535 119.179 119.169 118.231 
118.308 117.914 119.641 119.345 119.199 119.611 123.891 122.901 123.311 
122.418 121.987 122.435 122.146 122.287 122.616 122.741 122.027 121.796 
122.604 122.152 122.824 123.01 121.625 123.026 121.267 123.022 123.579 
123.164 123.482 124.017 124.117 122.578 122.804 123.391 123.072 123.626 
123.898 124.14 124.61 124.373 124.332 124.2 124.645 124.061 123.691 
125.043 124.923 124.766 124.963 124.451 124.562 123.876 124.833 124.833 
125.182 125.442 122.286 122.556 122.8 122.906 122.192 122.996 123.31 
123.474 123.304 123.453 123.779 123.644 123.991 124.128 120.48 121.003 
120.65 120.865 121.413 121.207 121.571 121.332 120.808 120.368 121.9 
121.864 121.332 121.988 121.781 121.247 121.489 120.677 120.984 121.684 
121.177 120.343 120.122 120.953 120.624 121.535 120.109 120.411 119.206 
119.528 119.03 119.953 120.103 118.761 118.952 120.729 120.504 120.062 
120.316 124.196 124.767 123.92 124.522 125.381 124.977 125.568 125.184 
126.22 126.304 125.797 125.593 125.513 125.924 125.718 125.642 125.414 
126.121 125.931 126.358 126.157 126.372 126.101 125.85 126.121 125.827 
125.962 126.198 126.311 126.371 126.262 126.077 126.143 126.227 126.129 
126.286 126.253 126.344 126.347 133.139 133.279 132.218 132.18 133.726 
134.524 134.161 133.938 132.136 132.903 127.074 127.924 126.615 127.446 
128.622 129.15 126.074 126.099 126.361 127.77 127.947 129.253 127.521 
126.864 129.11 129.013 126.423 127.329 125.514 125.13 126.055 125.781 
124.846 124.66 145.272 147.169 148.478 148.197 145.557 146.146 149.308 
150.818 151.333 150.057 151.466 150.609 148.127 152.442 152.429 149.998 
148.853 148.845 146.872 146.258 145.847 144.801 144.292 144.706 152.012 
152.361 152.986 151.305 151.21 152.498 124.886 124.103 122.127 121.891 
126.243 126.716 146.986 147.141 147.336 146.423 146.815 147.433 147.104 
128.355 127.773 126.747 128.423 129.053 126.802 125.86 125.503 127.476 
126.266 128.899 113.005 112.127 115.386 114.443 111.718 110.256 109.568 
145.488 143.473 143.806 141.298 143.042 142.588 144.648 144.357 145.923 
145.734 140.726 147.152 145.781 146.704 147.96 146.238 147.464 148.468 
149.645 148.987 149.815 148.933 150.557 150.336 149.082 150.456 149.651 
137.108 138.409 137.658 139.252 137.812 140.077 139.146 135.973 136.421 
138.411 136.973 151.4 149.404 150.606 148.088 150.141 148.058 146.969 
152.435 151.526 148.946 152.65 153.328 153.097 151.619 141.333 139.393 
139.717 138.062 137.902 138.948 142.038 142.897 144.436 143.486 140.02 
141.073 137.644 138.455 129.204 128.75 127.703 129.59 130.097 128.18 
137.953 138.939 137.412 138.44 140.204 140.472 139.163 142.05 140.763 
139.726 131.785 133.037 132.039 134.33 133.39 133.463 132.224 130.725 
130.804 129.718 130.697 133.668 132.219 122.053 122.259 120.836 121.521 
123.371 125.461 128.889 125.986 126.432 124.528 125.337 124.979 125.7 
126.096 125.638 124.967 129.544 130.129 129.831 129.48 130.637 130.174 
127.533 128.21 128.456 128.535 127.727 128.678 128.737 127.897 126.573 
126.428 132.322 130.484 131.682 128.773 129.602 129.548 141.029 140.967 
140.092 141.735 141.995 139.923 140.84 140.192 139.177 139.007 136.681 
137.9 138.614 138.688 137.135 137.834 140.508 140.305 142.603 140.937 
142.752 140.129 141.578 139.217 132.97 132.744 131.722 133.832 134.107 
131.48 132.433 131.885 130.796 130.637 133.079 130.8 131.484 133.453 
132.031 132.754 134.107 135.406 129.916 129.483 130.929 132.618 130.475 
129.745 129.27 130.57 128.215 128.926 128.052 129.969 131.284 131.956 
128.538 126.835 130.319 132.025 128.991 128.735 129.039 129.354 128.268 
129.581 129.208 129.27 128.875 129.358 127.836 128.245 128.426 129.015 
128.504 129.408 128.558 129.159 129.27 129.551 129.785 128.742 128.892 
129.273 126.967 127.584 127.527 128.533 120.439 120.963 121.371 121.906 
120.614 120.058 119.242 119.163 119.984 123.407 122.803 123.326 122.643 
122.04 122.239 123.107 125.853 126.179 126.23 126.758 126.518 125.934 
125.741 125.381 125.819 125.318 124.911 124.959 125.358 125.103 124.746 
124.835 124.946 124.612 124.461 124.951 124.783 125.148 124.443 125.321 
125.502 125.487 125.173 125.499 125.291 125.114 125.704 124.874 125.09 
124.609 125.528 125.977 126.077 125.917 123.853 123.85 124.124 124.096 
123.727 123.458 124.366 124.331 123.971 124.193 124.003 123.892 124.315 
124.093 123.709 123.254 123.282 123.763 123.647 123.58 123.223 123.248 
122.737 122.718 123.756 123.466 118.179 117.976 117.227 116.651 118.442 
118.937 118.848 115.346 115.981 117.987 119.172 115.279 116.691 114.675 
117.427 114.746 115.609 114.923 116.707 116.305 115.376 114.164 114.084 
114.762 116.027 115.319 117.005 114.89 114.355 115.926 113.385 113.144 
112.463 112.253 113.925 113.663 112.61 111.391 111.45 113.456 111.703 
114.077 145.485 146.297 146.468 148.137 146.012 147.431 149.272 144.716 
147.923 144.242 150.657 148.117 147.719 148.843 151.6 140.445 140.518 
141.392 141.495 140.613 139.456 139.554 141.307 142.236 142.379 125.895 
122.555 126.125 119.831 123.444 121.983 118.047 128.885 129.793 126.344 
125.967 128.09 113.234 113.737 112.027 114.474 115.653 114.973 112.876 
112.616 113.89 113.513 111.507 111.555 124.766 124.553 126.219 126.115 
124.052 123.72 126.14 128.71 129.035 124.979 126.082 128.277 124.434 
127.144 127.169 127.184 127.362 127.256 127.278 127.283 127.159 127.224 
127.609 127.667 128.323 127.82 127.75 127.354 127.594 127.414 127.632 
127.816 127.778 128.021 127.416 127.614 127.236 127.856 128.054 128.244 
128.222 128.099 127.843 126.1 126.649 126.729 127.023 126.939 126.368 
127.696 127.177 126.572 125.803 125.502 126.211 125.321 127.566 127.826 
138.581 140.538 141.283 143.854 138.957 137.251 139.373 137.225 137.908 
139.707 138.162 143.971 146.9 131.448 130.873 131.083 130.06 130.194 
129.051 130.004 129.116 130.932 131.56 131.313 113.422 113.705 114.115 
113.216 113.91 113.625 114.081 115.094 114.716 115.095 114.262 113.99 
114.017 114.101 113.883 115.845 115.981 116.341 116.575 115.965 115.512 
115.5 115.492 115.086 115.911 115.913 115.035 115.4 97.1856 98.765 
96.2135 97.7805 100.968 99.7208 91.8756 94.2418 92.3202 103.559 98.203 
89.1587 89.9477 93.0738 102.867 96.5651 90.6622 101.83 96.6188 96.476 
101.162 94.4237 77.4032 83.0914 83.1858 90.3979 83.5939 88.247 94.1347 
100.695 80.3695 84.0112 88.7658 124.475 124.318 123.343 123.631 124.172 
124.905 124.749 123.589 125.402 125.363 125.611 125.875 126.18 125.756 
126.227 125.987 127.208 126.925 126.77 128.016 128.419 128.045 128.81 
128.408 128.354 128.833 128.059 96.4921 96.7362 95.1011 97.7405 93.5726 
95.3303 96.7882 96.2434 118.577 117.275 117.924 117.398 115.921 116.356 
116.748 116.423 117.093 118.222 115.536 114.928 115.625 116.028 118.686 
118.974 118.054 118.411 119.777 119.75 124.357 124.31 123.445 123.649 
124.758 125.432 123.521 122.975 123.919 123.242 122.263 122.213 121.915 
121.37 122.842 123.226 124.019 124.94 124.306 122.331 121.589 129.874 
129.498 129.846 129.382 128.698 129.592 129.712 129.745 129.959 129.931 
129.605 129.748 129.797 126.753 126.508 126.72 126.946 126.823 127.121 
126.554 126.409 126.791 126.167 126.464 127.236 126.965 127.593 127.443 
129.427 129.297 129.941 129.053 128.755 128.949 129.466 128.144 128.412 
128.528 128.235 127.783 128.02 128.044 125.815 125.309 125.893 125.484 
125.045 124.78 125.383 125.718 126.004 126.176 125.771 131.78 130.936 
130.784 130.111 130.873 131.852 130.68 131.738 126.925 126.652 126.874 
126.713 126.641 126.484 127.441 127.395 127.373 127.433 127.379 127.401 
127.393 126.542 126.557 126.496 126.614 126.494 126.578 126.514 129.29 
129.355 129.091 129.564 129.551 129.362 129.143 129.728 129.456 129.771 
130.177 130.547 130.235 130.699 130.778 108.459 109.966 109.381 111.11 
109.588 112.091 106.893 106.965 107.211 106.689 107.288 106.972 106.713 
126.721 126.992 126.846 127.119 126.221 126.537 126.203 126.599 126.367 
126.556 126.089 126.131 126.759 126.602 126.767 126.383 126.64 126.104 
126.178 126.139 127.195 127.337 127.311 127.226 127.437 127.529 127.377 
127.205 127.313 127.082 127.072 127.076 126.953 126.807 126.957 127.47 