# vtk DataFile Version 5.1
vtk output
ASCII
DATASET UNSTRUCTURED_GRID
POINTS 18702 float
0.421682 0.0411388 0 0.420239 0.03751 0 0.42 0.0377334 0 
0.42 0.0405894 0 0.422732 0.108365 0 0.42126 0.105889 0 
0.42 0.107914 0 0.42 0.108318 0 0.423017 0.0712063 0 
0.420415 0.0746597 0 0.42 0.0712275 0 0.42 0.0702073 0 
0.420204 0.197283 0 0.421 0.194269 0 0.42 0.194831 0 
0.42 0.197125 0 0.422199 0.065783 0 0.42373 0.0607192 0 
0.42 0.0613726 0 0.42 0.0615178 0 0.42179 0.0245636 0 
0.421827 0.0281652 0 0.42 0.0281363 0 0.42 0.0270425 0 
0.421755 0.112589 0 0.421282 0.11788 0 0.42 0.116109 0 
0.42 0.113253 0 0.42 0.108845 0 0.422073 0.102805 0 
0.421226 0.0988325 0 0.42 0.100383 0 0.42 0.102407 0 
0.422386 0.13107 0 0.42073 0.127415 0 0.42 0.128463 0 
0.42 0.130266 0 0.421137 0.0100503 0 0.421224 0.0134228 0 
0.42 0.0116433 0 0.42 0.0100214 0 0.4213 0.00668417 0 
0.42 0.00845023 0 0.420883 0.0477784 0 0.42116 0.0522735 0 
0.42 0.0509734 0 0.42 0.048215 0 0.421312 0.183964 0 
0.422426 0.188237 0 0.42 0.187008 0 0.42 0.185161 0 
0.420015 0.0185617 0 0.42 0.018494 0 0.42 0.0146227 0 
0.422599 0.146874 0 0.420944 0.144158 0 0.42 0.146172 0 
0.42 0.14714 0 0.421325 0.140529 0 0.42269 0.137479 0 
0.42 0.137819 0 0.42 0.138436 0 0.421205 0.149902 0 
0.422319 0.153661 0 0.42 0.155213 0 0.42 0.154612 0 
0.42 0.147957 0 0.42269 0.2 0 0.42 0.2 0 
0.42 0.197754 0 0.421525 0.0571263 0 0.42 0.0562712 0 
0.42 0.0542414 0 0.42 0.0612012 0 0.420788 0.0786338 0 
0.42 0.078613 0 0.42 0.0753631 0 0.421762 0.0209906 0 
0.42 0.0219846 0 0.42 0.0236297 0 0.42189 0.174861 0 
0.42062 0.171969 0 0.42 0.17343 0 0.42 0.175107 0 
0.420184 0.00307037 0 0.42 0.00611903 0 0.42 0.00324794 0 
0.423021 0.191949 0 0.42 0.190193 0 0.42 0.190342 0 
0.42 0.0186026 0 0.420673 0.179349 0 0.42 0.177394 0 
0.421875 0 0 0.42 0 0 0.42 0.00281585 0 
0.42 0.179978 0 0.42 0.183098 0 0.42 0.143877 0 
0.42 0.14183 0 0.42 0.069923 0 0.42 0.190682 0 
0.421846 0.0447855 0 0.42 0.0442084 0 0.42 0.0436297 0 
0.420956 0.123762 0 0.42 0.124614 0 0.42 0.127193 0 
0.420805 0.159595 0 0.421728 0.156724 0 0.42 0.155471 0 
0.42 0.156134 0 0.42 0.119959 0 0.42 0.122761 0 
0.422416 0.0355094 0 0.42 0.0368044 0 0.42 0.0339608 0 
0.421875 0.0317666 0 0.42 0.0326172 0 0.420362 0.0884864 0 
0.421953 0.0928422 0 0.42 0.0922076 0 0.42 0.0899515 0 
0.420999 0.134742 0 0.42 0.137036 0 0.42 0.029195 0 
0.42018 0.164006 0 0.42 0.160463 0 0.42 0.163908 0 
0.42 0.132354 0 0.421639 0.168862 0 0.42 0.168139 0 
0.42 0.165217 0 0.42 0.0450899 0 0.42 0.105526 0 
0.42 0.104515 0 0.420576 0.0826691 0 0.42 0.0797091 0 
0.42 0.0823928 0 0.422321 0.0960372 0 0.42 0.0958702 0 
0.42 0.0969117 0 0.42 0.0950369 0 0.42 0.16955 0 
0.42 0.0838853 0 0.42 0.0880686 0 0.789063 0 0 
0.789371 0.0043719 0 0.787851 0.04168 0 0.789626 0.0387953 0 
0.789691 0.0889693 0 0.787913 0.0923898 0 0.787554 0.0268337 0 
0.789564 0.0245985 0 0.787109 0.00716789 0 0.78751 0.152021 0 
0.788188 0.146376 0 0.789853 0.15634 0 0.789724 0.161337 0 
0.787866 0.0578589 0 0.789813 0.0599538 0 0.789727 0.0653392 0 
0.789633 0.0544964 0 0.786622 0.0323156 0 0.78812 0.0355854 0 
0.786988 0.0792757 0 0.788103 0.082197 0 0.787375 0.193172 0 
0.788487 0.189494 0 0.788129 0.0104353 0 0.789867 0.175791 0 
0.78998 0.172307 0 0.789932 0.0713395 0 0.789501 0.0751804 0 
0.789812 0.0843808 0 0.787895 0.0962072 0 0.788628 0.111337 0 
0.789371 0.115227 0 0.789373 0.140922 0 0.786773 0.142667 0 
0.787819 0.0212595 0 0.788808 0.0300819 0 0.78813 0.0164067 0 
0.787932 0.196558 0 0.789988 0.0510403 0 0.787906 0.178028 0 
0.789782 0.108477 0 0.788074 0.10633 0 0.788753 0.119167 0 
0.789855 0.123258 0 0.789709 0.152926 0 0.788739 0.185473 0 
0.78632 0.0128127 0 0.78899 0.132436 0 0.78798 0.127871 0 
0.789552 0.101817 0 0.78862 0.181676 0 0.789096 0.0470293 0 
0.788105 0.169368 0 0.788305 0.2 0 0.789052 0.164445 0 
0.789185 0.136679 0 0.634786 0.594494 0 0.636797 0.593811 0 
0.635319 0.591021 0 0.618758 0.586781 0 0.615705 0.587142 0 
0.617393 0.590049 0 0.624685 0.426273 0 0.622368 0.429259 0 
0.624454 0.431419 0 0.700783 0.53648 0 0.702512 0.532209 0 
0.700089 0.531119 0 0.681787 0.561958 0 0.684954 0.560462 0 
0.683506 0.557276 0 0.689351 0.532735 0 0.686199 0.534072 0 
0.688321 0.536301 0 0.694838 0.526533 0 0.695154 0.531701 0 
0.697213 0.528521 0 0.692833 0.517705 0 0.689125 0.517371 0 
0.689866 0.521229 0 0.682928 0.534308 0 0.6822 0.529385 0 
0.68436 0.531249 0 0.658495 0.574553 0 0.657207 0.579325 0 
0.656204 0.575938 0 0.660812 0.571373 0 0.660651 0.574598 0 
0.65869 0.571383 0 0.648711 0.576351 0 0.645293 0.577015 0 
0.647251 0.57957 0 0.67049 0.561718 0 0.666895 0.563738 0 
0.6687 0.55968 0 0.663008 0.574608 0 0.654359 0.567614 0 
0.652064 0.572752 0 0.655433 0.572416 0 0.675646 0.558831 0 
0.672079 0.5563 0 0.673042 0.560169 0 0.670878 0.539113 0 
0.670178 0.542992 0 0.668827 0.540452 0 0.669062 0.487513 0 
0.667383 0.482409 0 0.669837 0.484508 0 0.658507 0.58409 0 
0.6551 0.582066 0 0.609329 0.562497 0 0.61258 0.561149 0 
0.611294 0.566414 0 0.599136 0.583852 0 0.601808 0.581285 0 
0.599396 0.577997 0 0.591335 0.58401 0 0.59068 0.58022 0 
0.592672 0.581468 0 0.60041 0.569108 0 0.600801 0.565223 0 
0.602726 0.568605 0 0.619431 0.566077 0 0.618713 0.571738 0 
0.616838 0.56746 0 0.622032 0.450964 0 0.62155 0.44588 0 
0.624914 0.449267 0 0.708806 0.455984 0 0.706937 0.451249 0 
0.710835 0.451399 0 0.695494 0.46273 0 0.693852 0.467293 0 
0.692216 0.461856 0 0.699862 0.506802 0 0.70267 0.506536 0 
0.702243 0.50315 0 0.72074 0.512571 0 0.717758 0.513628 0 
0.721202 0.516345 0 0.719766 0.477889 0 0.717938 0.48261 0 
0.721154 0.482256 0 0.723665 0.510396 0 0.723062 0.514087 0 
0.714096 0.487696 0 0.712798 0.485175 0 0.712188 0.489142 0 
0.727798 0.487402 0 0.728752 0.482768 0 0.730577 0.486536 0 
0.672234 0.433977 0 0.669002 0.437575 0 0.669163 0.432835 0 
0.716466 0.509461 0 0.715036 0.514134 0 0.719019 0.517816 0 
0.694079 0.496429 0 0.691588 0.493543 0 0.691917 0.496765 0 
0.685463 0.518298 0 0.684525 0.513359 0 0.68302 0.517443 0 
0.660918 0.371769 0 0.66438 0.372136 0 0.662541 0.374246 0 
0.664624 0.400103 0 0.666684 0.395928 0 0.664409 0.396633 0 
0.749112 0.416173 0 0.746404 0.413131 0 0.7468 0.41657 0 
0.758119 0.406786 0 0.755987 0.409416 0 0.759041 0.410439 0 
0.75584 0.400863 0 0.755424 0.394711 0 0.757782 0.39746 0 
0.757774 0.403137 0 0.687106 0.307802 0 0.690682 0.306676 0 
0.689232 0.309658 0 0.729217 0.341177 0 0.73238 0.342724 0 
0.731586 0.338326 0 0.747175 0.35133 0 0.749863 0.353354 0 
0.748666 0.347519 0 0.760669 0.336395 0 0.758095 0.334109 0 
0.760409 0.332648 0 0.740976 0.33461 0 0.745057 0.334081 0 
0.744447 0.33726 0 0.713277 0.328444 0 0.714034 0.323285 0 
0.716238 0.326718 0 0.738022 0.36419 0 0.739753 0.367316 0 
0.740025 0.362403 0 0.729152 0.377256 0 0.726482 0.373164 0 
0.72921 0.373139 0 0.749282 0.373521 0 0.751711 0.371728 0 
0.748014 0.370821 0 0.760606 0.384203 0 0.761638 0.389307 0 
0.759672 0.387415 0 0.756626 0.380703 0 0.75388 0.380267 0 
0.75507 0.383084 0 0.744524 0.376603 0 0.74292 0.381432 0 
0.742036 0.377758 0 0.729167 0.369048 0 0.726358 0.364587 0 
0.729129 0.363354 0 0.76328 0.333528 0 0.7635 0.337973 0 
0.697756 0.351627 0 0.698364 0.347385 0 0.699646 0.350017 0 
0.704809 0.425224 0 0.707126 0.424133 0 0.70637 0.427672 0 
0.743477 0.441437 0 0.744305 0.436178 0 0.741662 0.439147 0 
0.736929 0.455582 0 0.7347 0.457747 0 0.738201 0.459485 0 
0.726041 0.410505 0 0.728982 0.410728 0 0.727434 0.412899 0 
0.73904 0.423934 0 0.73716 0.428429 0 0.736391 0.424832 0 
0.734509 0.416392 0 0.733539 0.420081 0 0.736498 0.41777 0 
0.675037 0.458673 0 0.676288 0.452981 0 0.673744 0.453295 0 
0.626985 0.3924 0 0.630249 0.392101 0 0.628471 0.388655 0 
0.743343 0.261962 0 0.744748 0.264847 0 0.745532 0.260554 0 
0.732977 0.250083 0 0.732434 0.253866 0 0.735351 0.250242 0 
0.745173 0.268361 0 0.746936 0.263439 0 0.715887 0.276058 0 
0.713225 0.274616 0 0.716231 0.272459 0 0.745056 0.273106 0 
0.746911 0.270834 0 0.753394 0.274973 0 0.756467 0.274868 0 
0.755803 0.271495 0 0.748231 0.267406 0 0.747093 0.257856 0 
0.743638 0.258462 0 0.734432 0.324291 0 0.734147 0.320246 0 
0.736071 0.321986 0 0.750832 0.278035 0 0.751489 0.283152 0 
0.752967 0.279029 0 0.741019 0.29177 0 0.738702 0.289488 0 
0.738767 0.293128 0 0.759474 0.304842 0 0.760441 0.30062 0 
0.757014 0.302021 0 0.749365 0.307171 0 0.746695 0.307269 0 
0.748079 0.310239 0 0.686892 0.233633 0 0.68402 0.231387 0 
0.684797 0.237142 0 0.704469 0.200496 0 0.702653 0.197246 0 
0.701828 0.201049 0 0.732398 0.220173 0 0.730594 0.21747 0 
0.728823 0.219308 0 0.727204 0.209671 0 0.725677 0.213625 0 
0.727744 0.213158 0 0.733671 0.200692 0 0.733519 0.20038 0 
0.733299 0.200517 0 0.728183 0.216223 0 0.726085 0.216911 0 
0.729097 0.222512 0 0.727388 0.226327 0 0.727011 0.223172 0 
0.480781 0.430012 0 0.482729 0.426956 0 0.481355 0.4243 0 
0.468294 0.437749 0 0.464636 0.440584 0 0.465305 0.436152 0 
0.459245 0.429729 0 0.456811 0.427383 0 0.456804 0.431413 0 
0.498317 0.428525 0 0.499164 0.423809 0 0.497274 0.425574 0 
0.521515 0.388593 0 0.524834 0.390349 0 0.522223 0.393616 0 
0.446356 0.30325 0 0.444876 0.307671 0 0.44715 0.306616 0 
0.438664 0.358984 0 0.436123 0.357167 0 0.438167 0.355642 0 
0.446017 0.343974 0 0.443283 0.344514 0 0.445197 0.3394 0 
0.443185 0.379685 0 0.446169 0.380813 0 0.445056 0.37799 0 
0.472494 0.328871 0 0.47548 0.328767 0 0.474022 0.331072 0 
0.459162 0.395086 0 0.45856 0.399205 0 0.456895 0.39394 0 
0.441496 0.376259 0 0.44076 0.379726 0 0.441361 0.388674 0 
0.444308 0.389474 0 0.442407 0.393878 0 0.438329 0.387286 0 
0.438115 0.391189 0 0.490417 0.35255 0 0.49003 0.358582 0 
0.487095 0.354955 0 0.439724 0.383016 0 0.489655 0.432537 0 
0.492637 0.433053 0 0.489415 0.436014 0 0.468164 0.420478 0 
0.471225 0.421993 0 0.469209 0.423443 0 0.450528 0.44189 0 
[...]
POINT_DATA 18702
FIELD FieldData 5
Vel_PINN 3 18702 double
1.4127163887 -0.26581341028 0 1.3768081665 -0.26765394211 0 1.3799207211 -0.26789295673 0 
1.4108544588 -0.26770585775 0 1.2848958969 -0.32937264442 0 1.3139079809 -0.32637566328 0 
1.2812726498 -0.33351904154 0 1.275506258 -0.33449584246 0 1.5705729723 -0.27283012867 0 
1.5647313595 -0.27937889099 0 1.5692620277 -0.27716451883 0 1.5697823763 -0.2764069438 0 
-0.25195094943 -0.68022435904 0 -0.21532776952 -0.66807770729 0 -0.22491574287 -0.67207318544 0 
-0.25079864264 -0.68007576466 0 1.5669267178 -0.27052891254 0 1.552220583 -0.26615768671 0 
1.5567038059 -0.27131086588 0 1.5571699142 -0.27137452364 0 1.2062743902 -0.26829445362 0 
1.2559046745 -0.26745337248 0 1.2611241341 -0.26930129528 0 1.2463405132 -0.26952147484 0 
1.2187619209 -0.34185677767 0 1.1320406199 -0.35740578175 0 1.1558595896 -0.35494065285 0 
1.2015073299 -0.34708595276 0 1.2679226398 -0.33577901125 0 1.3568874598 -0.31806701422 0 
1.4015218019 -0.31155765057 0 1.3797847033 -0.31684094667 0 1.3550403118 -0.32104426622 0 
0.90154242516 -0.397593081 0 0.96195137501 -0.38852185011 0 0.9392105341 -0.39367091656 0 
0.9055223465 -0.39995223284 0 0.99193918705 -0.27264022827 0 1.0434684753 -0.27167522907 0 
1.0205590725 -0.27325713634 0 0.99558651447 -0.2736723423 0 0.93925392628 -0.27335858345 0 
0.97130918503 -0.27406978607 0 1.4764873981 -0.2668196559 0 1.5098745823 -0.26707434654 0 
1.5025093555 -0.26826006174 0 1.4815797806 -0.26790124178 0 -0.077102065086 -0.62661463022 0 
-0.13376782835 -0.6419352293 0 -0.12514048815 -0.64205789566 0 -0.099137455225 -0.63445788622 0 
1.1252104044 -0.27147209644 0 1.124256134 -0.27150303125 0 1.0660899878 -0.27248984575 0 
0.59525060654 -0.45850676298 0 0.64086413383 -0.45103120804 0 0.59659826756 -0.46155101061 0 
0.57751059532 -0.46561723948 0 0.71407902241 -0.43550866842 0 0.7801861763 -0.42054671049 0 
0.76068985462 -0.42788773775 0 0.74865937233 -0.43027937412 0 0.52888131142 -0.4745927453 0 
0.46048817039 -0.48835223913 0 0.41937083006 -0.50061744452 0 0.43102532625 -0.49795591831 0 
0.56139838696 -0.46907615662 0 -0.27378645539 -0.68452936411 0 -0.28095254302 -0.68950170279 0 
-0.25761774182 -0.68219822645 0 1.53805089 -0.26777768135 0 1.5351597071 -0.26945656538 0 
1.5238540173 -0.26891565323 0 1.5561414957 -0.2712367177 0 1.5537011623 -0.28262138367 0 
1.5528383255 -0.2838049531 0 1.5628054142 -0.28062605858 0 1.1550315619 -0.26919478178 0 
1.175352931 -0.27064907551 0 1.1988805532 -0.27026510239 0 0.068617716432 -0.58537364006 0 
0.11258882284 -0.57517904043 0 0.085027381778 -0.58321368694 0 0.056864589453 -0.59076601267 0 
0.88733994961 -0.27521210909 0 0.93520855904 -0.27464777231 0 0.89075112343 -0.27533143759 0 
-0.18063384295 -0.65534329414 0 -0.16784158349 -0.65473717451 0 -0.16977080703 -0.65531635284 0 
1.1258676052 -0.27147585154 0 -0.009193725884 -0.60810029507 0 0.019383475184 -0.60097306967 0 
0.8339253664 -0.27444440126 0 0.84068346024 -0.27605378628 0 0.88407182693 -0.27543121576 0 
-0.021619237959 -0.61234652996 0 -0.069066941738 -0.62578451633 0 0.64184522629 -0.45203989744 0 
0.68216025829 -0.44371598959 0 1.5698518753 -0.27620220184 0 -0.17414948344 -0.65663146973 0 
1.448328495 -0.26556187868 0 1.4466761351 -0.26766234636 0 1.4412121773 -0.26765364408 0 
1.0291447639 -0.37601774931 0 1.0095975399 -0.3807874918 0 0.96268165112 -0.38933974504 0 
0.33891364932 -0.51836967468 0 0.39823806286 -0.50330924988 0 0.41436561942 -0.5017645359 0 
0.40154337883 -0.50471544266 0 1.0914227962 -0.36618852615 0 1.0426462889 -0.37484496832 0 
1.3478882313 -0.26555228233 0 1.3693835735 -0.26797968149 0 1.3357653618 -0.26831823587 0 
1.3031020164 -0.26670712233 0 1.3192030191 -0.26851320267 0 1.4973416328 -0.29553192854 0 
1.4646356106 -0.29959356785 0 1.4655439854 -0.30189335346 0 1.4849746227 -0.29832535982 0 
0.82505893707 -0.41398078203 0 0.77594339848 -0.42487043142 0 1.2752172947 -0.26909762621 0 
0.25328463316 -0.53986376524 0 0.31875649095 -0.52417647839 0 0.25428760052 -0.5398375392 0 
0.86602675915 -0.40741711855 0 0.17143166065 -0.55866914988 0 0.1772749573 -0.55915558338 0 
0.23019859195 -0.54580795765 0 1.454797864 -0.2676872611 0 1.3143876791 -0.32792073488 0 
1.327886939 -0.3256393075 0 1.5353171825 -0.28745734692 0 1.5485079288 -0.28497117758 0 
1.5358669758 -0.28803521395 0 1.4347333908 -0.30442124605 0 1.4300252199 -0.30819356441 0 
1.4190500975 -0.31010121107 0 1.4385287762 -0.30670422316 0 0.15220975876 -0.56559205055 0 
1.5275914669 -0.28986895084 0 1.4997239113 -0.2955250144 0 0.052541553974 -0.066431954503 0 
0.06502187252 -0.065755426884 0 0.29721468687 -0.04365028441 0 0.26755040884 -0.046170517802 0 
0.9080439806 0.03180205822 0 0.96708869934 0.038162484765 0 0.17790849507 -0.056792184711 0 
0.16040845215 -0.057685777545 0 0.076422020793 -0.065943524241 0 1.6044738293 0.12896303833 0 
1.5881967545 0.12578232586 0 1.6074590683 0.13232204318 0 1.6025589705 0.1328869611 0 
0.47203978896 -0.023099333048 0 0.49271863699 -0.019578233361 0 0.56235814095 -0.011159434915 0 
0.42757481337 -0.027506679296 0 0.21922035515 -0.052876576781 0 0.24288415909 -0.049616843462 0 
0.76899349689 0.012710824609 0 0.80941677094 0.01841776073 0 1.3258728981 0.094493880868 0 
1.3801839352 0.10391451418 0 0.088253431022 -0.064722388983 0 1.5298197269 0.12596665323 0 
1.555421114 0.12906636298 0 0.64400708675 -0.0010275095701 0 0.70039117336 0.0056917220354 0 
0.83702015877 0.022918507457 0 1.0262323618 0.045706287026 0 1.2487735748 0.075410559773 0 
1.2997438908 0.082874774933 0 1.5593248606 0.12142646313 0 1.5727460384 0.12170791626 0 
0.14238482714 -0.060188814998 0 0.19887278974 -0.05405895412 0 0.11561347544 -0.062503993511 0 
1.2770161629 0.087010249496 0 0.38778918982 -0.032060772181 0 1.5071766376 0.12146873772 0 
1.2044126987 0.070274144411 0 1.1786808968 0.065665647388 0 1.3525654078 0.089741796255 0 
1.3989620209 0.097131937742 0 1.6048777103 0.13093231618 0 1.4311850071 0.11171270907 0 
0.10030317307 -0.064521297812 0 1.4958775043 0.11083860695 0 1.4541881084 0.10375976563 0 
1.1064655781 0.0571937114 0 1.4731018543 0.1175249517 0 0.34720304608 -0.037277594209 0 
1.5709245205 0.12915742397 0 1.2235736847 0.078295961022 0 1.5937936306 0.13194705546 0 
1.5306004286 0.11647701263 0 -0.17297253013 0.46525794268 0 -0.17161649466 0.46562969685 0 
-0.16184774041 0.46836864948 0 -0.13930347562 0.47394108772 0 -0.1391467154 0.47391808033 0 
-0.15044537187 0.47123003006 0 0.97298705578 0.3585190773 0 0.96236586571 0.36938297749 0 
0.95045411587 0.37646245956 0 0.060580283403 0.49412834644 0 0.086950868368 0.49495393038 0 
0.09590986371 0.49566310644 0 -0.067959755659 0.48475909233 0 -0.062580287457 0.48518848419 0 
-0.046123117208 0.4874907732 0 0.092791289091 0.49724030495 0 0.086214095354 0.49744182825 0 
0.070298999548 0.49646544456 0 0.13114067912 0.49737328291 0 0.095537334681 0.4964542985 0 
0.11559519172 0.49667650461 0 0.19722801447 0.49788701534 0 0.20263266563 0.49846535921 0 
0.17308264971 0.49852216244 0 0.086975246668 0.49791264534 0 0.12057355046 0.49906927347 0 
0.10629889369 0.49838864803 0 -0.1112934649 0.4792599678 0 -0.12965816259 0.47556293011 0 
-0.11580100656 0.47848963737 0 -0.099126935005 0.4813927412 0 -0.11256146431 0.47890102863 0 
-0.09806188941 0.48169845343 0 -0.11371573806 0.47920125723 0 -0.11468163133 0.47911483049 0 
-0.12582334876 0.47677135468 0 -0.060486882925 0.48682236671 0 -0.068080276251 0.48601686954 0 
-0.049500882626 0.48842906952 0 -0.11377564073 0.47853064537 0 -0.079042285681 0.48509979248 0 
-0.10044524074 0.48158043623 0 -0.10077989101 0.48137354851 0 -0.049331456423 0.48786437511 0 
-0.034424126148 0.48999577761 0 -0.054422855377 0.48743236065 0 0.064574331045 0.49829000235 0 
0.04116538167 0.49696242809 0 0.057625681162 0.49811267853 0 0.47036647797 0.48659241199 0 
0.51788890362 0.48158019781 0 0.49688801169 0.48355150223 0 -0.14791589975 0.47128343582 0 
-0.13902786374 0.47355782986 0 -0.027522057295 0.49282240868 0 -0.022654920816 0.49345684052 0 
-0.048244953156 0.49018794298 0 -0.11811619997 0.47796267271 0 -0.10922172666 0.47986233234 0 
-0.094148308039 0.48258674145 0 -0.11457982659 0.47829067707 0 -0.098689466715 0.48132997751 0 
-0.10498586297 0.48025256395 0 -0.054599285126 0.48899102211 0 -0.035920709372 0.49154561758 0 
-0.053602606058 0.48921453953 0 -0.051540821791 0.4898442626 0 -0.077608853579 0.48593878746 0 
-0.056630939245 0.48910355568 0 0.82565569878 0.43181401491 0 0.8640267849 0.41935896873 0 
0.83655846119 0.42758995295 0 0.71444022655 0.4316637516 0 0.75302731991 0.42085522413 0 
0.74823319912 0.42036414146 0 0.6703401804 0.44827592373 0 0.63208544254 0.45681548119 0 
0.68066859245 0.44716221094 0 0.27804514766 0.49437874556 0 0.27797359228 0.49378407001 0 
0.30649086833 0.49250137806 0 0.21507787704 0.49179595709 0 0.20918881893 0.49263197184 0 
0.1856637001 0.492231071 0 0.51454305649 0.46772587299 0 0.47356960177 0.47377806902 0 
0.47393235564 0.47269952297 0 0.22988796234 0.49067389965 0 0.20148155093 0.49153524637 0 
0.4311978519 0.47974652052 0 0.45493862033 0.47755229473 0 0.41991600394 0.4814324379 0 
0.4219121933 0.47653323412 0 0.46258679032 0.4715732336 0 0.42720347643 0.47506159544 0 
0.89585161209 0.37760359049 0 0.87935519218 0.3898717761 0 0.90439319611 0.37433832884 0 
0.24310269952 0.49200111628 0 0.20740148425 0.49328970909 0 0.17625853419 0.492831707 0 
0.37077817321 0.49021333456 0 0.39816632867 0.4886097908 0 0.36962905526 0.49077302217 0 
0.19839188457 0.49911463261 0 0.23736023903 0.49861854315 0 0.20678946376 0.4994134903 0 
0.75814521313 0.052458979189 0 0.75607705116 0.053516559303 0 0.77982842922 0.069248750806 0 
0.94477629662 0.23082153499 0 0.92652153969 0.20666779578 0 0.93253386021 0.2115072459 0 
0.85900270939 0.28294575214 0 0.86199605465 0.26926910877 0 0.8619530201 0.28573417664 0 
0.83568680286 0.23152838647 0 0.84434115887 0.24641634524 0 0.84165525436 0.25042897463 0 
0.81946921349 0.19943104684 0 0.78966140747 0.16296605766 0 0.80083441734 0.17854957283 0 
0.82522141933 0.21153996885 0 -0.063101246953 -0.38381958008 0 -0.076180353761 -0.38651943207 0 
-0.047236412764 -0.37546157837 0 0.26745218039 -0.19674511254 0 0.28209775686 -0.18698646128 0 
0.22766233981 -0.21566437185 0 0.36691299081 -0.13167262077 0 0.38774490356 -0.11837863177 0 
0.31634676456 -0.1579990983 0 0.16162194312 -0.22803094983 0 0.13856443763 -0.24086327851 0 
0.1188827306 -0.2483587414 0 0.16801476479 -0.23897744715 0 0.15596199036 -0.2419487536 0 
0.19513121247 -0.22320659459 0 0.13228295743 -0.27560901642 0 0.070728331804 -0.3044308722 0 
0.10768480599 -0.28542941809 0 0.54097676277 -0.036921426654 0 0.57405161858 -0.015103057027 0 
0.51624262333 -0.050628885627 0 0.69735229015 0.060219600797 0 0.66102135181 0.032621972263 0 
0.65603458881 0.031217500567 0 0.62493896484 0.024953179061 0 0.6016741991 0.011238820851 0 
0.5984108448 0.0064142048359 0 0.70629811287 0.093153283 0 0.74442088604 0.12610858679 0 
0.73364841938 0.11476533115 0 0.68247997761 0.07141366601 0 0.68322968483 0.069698646665 0 
0.70623445511 0.088222578168 0 0.66451966763 0.048674874008 0 0.71249508858 0.082657247782 0 
0.68006336689 0.05783469975 0 0.612159729 0.0019496381283 0 0.56627047062 -0.029183618724 0 
0.5468569994 -0.03932453692 0 0.12512788177 -0.24333623052 0 0.17621919513 -0.21896253526 0 
0.45632281899 -0.11325336248 0 0.39985045791 -0.14488807321 0 0.43208113313 -0.12592336535 0 
0.89819657803 0.3376660943 0 0.89868211746 0.33258932829 0 0.88862454891 0.34683042765 0 
0.78288114071 0.38380765915 0 0.8107303381 0.36634486914 0 0.79802072048 0.37709873915 0 
0.69072782993 0.42394351959 0 0.67565095425 0.42942398787 0 0.65806233883 0.43225032091 0 
0.88699626923 0.26406121254 0 0.88333749771 0.26407021284 0 0.88700699806 0.27544689178 0 
0.86200261116 0.32144671679 0 0.85143649578 0.34030008316 0 0.86301982403 0.32611268759 0 
0.87795495987 0.28956854343 0 0.87584996223 0.30675154924 0 0.87461721897 0.29523479939 0 
0.72216272354 0.44347512722 0 0.76714336872 0.43073874712 0 0.76683986187 0.43186032772 0 
0.9633513689 0.1995587796 0 0.95767045021 0.19679217041 0 0.94206798077 0.17700313032 0 
-0.031041488051 -0.28596746922 0 -0.055464014411 -0.29532235861 0 -0.0099379718304 -0.27544397116 0 
0.079977683723 -0.2519210577 0 0.028579615057 -0.27138036489 0 0.085939563811 -0.24771550298 0 
-0.084636032581 -0.3082870841 0 -0.036162830889 -0.28518933058 0 -0.17937853932 -0.38264065981 0 
-0.17889791727 -0.38378405571 0 -0.16647733748 -0.37350279093 0 -0.11801442504 -0.32508164644 0 
-0.099287942052 -0.31404739618 0 -0.11286357045 -0.31622254848 0 -0.10618296266 -0.31042265892 0 
-0.084558665752 -0.30001986027 0 -0.069511368871 -0.29884171486 0 0.025719497353 -0.26001685858 0 
0.008021697402 -0.26982918382 0 0.057795777917 -0.2955224514 0 0.015657737851 -0.31432193518 0 
0.031523287296 -0.30596166849 0 -0.13341781497 -0.32973986864 0 -0.15029942989 -0.34096598625 0 
-0.13422191143 -0.32882267237 0 -0.16408899426 -0.36673122644 0 -0.1682857573 -0.36843949556 0 
-0.16275209188 -0.36991018057 0 -0.11688691378 -0.3412104845 0 -0.13432273269 -0.34359878302 0 
-0.1296210289 -0.34642416239 0 -0.10243713856 -0.34674030542 0 -0.10106962919 -0.34874492884 0 
-0.081596553326 -0.34113836288 0 0.15688668191 -0.26792818308 0 0.18209631741 -0.2626055479 0 
0.094731733203 -0.29063457251 0 0.8658914566 -0.067457124591 0 0.92177009583 -0.057833120227 0 
0.84273791313 -0.074962422252 0 0.60056471825 -0.10025705397 0 0.64621663094 -0.090949639678 0 
0.60135805607 -0.10340927541 0 0.78708910942 -0.062019452453 0 0.70064008236 -0.082878246903 0 
0.71957457066 -0.076581403613 0 0.99265289307 -0.013277992606 0 0.99794721603 -0.012389108539 0 
0.99438989162 -0.013292863965 0 0.6600497961 -0.089948013425 0 0.63658905029 -0.097493723035 0 
0.5391972065 -0.11858956516 0 0.45734062791 -0.14142294228 0 0.51678204536 -0.12625049055 0 
1.0481299162 0.3727607131 0 1.0637738705 0.3637791872 0 1.0775846243 0.35537648201 0 
1.005171299 0.39257133007 0 0.9869903326 0.39917951822 0 1.0168837309 0.38803780079 0 
1.0587279797 0.36964178085 0 1.0727815628 0.36251664162 0 1.0497866869 0.3741106391 0 
1.0480149984 0.36974364519 0 1.070734024 0.35490143299 0 1.0634994507 0.3604888916 0 
1.0736688375 0.20430611074 0 1.0764523745 0.21297805011 0 1.0889986753 0.23010210693 0 
0.23231755197 -0.36947309971 0 0.30150330067 -0.33365982771 0 0.281096071 -0.34339851141 0 
0.98438930511 0.050206869841 0 0.9712805748 0.039393469691 0 0.95340192318 0.028906792402 0 
0.81162273884 -0.053850919008 0 0.82299029827 -0.048824116588 0 0.75601661205 -0.086669608951 0 
1.1209630966 0.16902314126 0 1.1227648258 0.17453791201 0 1.1109319925 0.15981094539 0 
0.56003427505 -0.18123546243 0 0.55267858505 -0.1837131083 0 0.58833956718 -0.16479304433 0 
1.1491082907 0.24279998243 0 1.1520588398 0.2609629035 0 1.1495757103 0.23769383132 0 
1.1060634851 0.15102757514 0 1.1237225533 0.16953831911 0 1.1532667875 0.21399800479 0 
1.1524646282 0.2176079005 0 1.1611758471 0.23791800439 0 1.1525838375 0.20756809413 0 
1.1609758139 0.22587542236 0 0.83519768715 -0.011516138911 0 0.90108168125 0.030587561429 0 
0.86756205559 0.0067518800497 0 1.1380428076 0.18649630249 0 1.0294988155 0.38086599112 0 
1.0250594616 0.38259595633 0 1.0080565214 0.39046263695 0 1.1010608673 0.34198027849 0 
1.0930540562 0.34718304873 0 1.087389946 0.35167390108 0 0.98245239258 0.40020155907 0 
0.98065662384 0.40061295033 0 0.95329880714 0.40915036201 0 1.0809569359 0.18305313587 0 
1.0675555468 0.17122450471 0 1.0588387251 0.15849387646 0 0.56652021408 -0.14791549742 0 
0.60854554176 -0.12291900069 0 0.62379574776 -0.11559506506 0 0.60466122627 -0.17445318401 0 
0.66489422321 -0.14248944819 0 0.66750466824 -0.13988055289 0 0.71043741703 -0.11587872356 0 
0.78993928432 -0.071813069284 0 0.73531377316 -0.1035374254 0 0.76431441307 -0.08497710526 0 
0.83215248585 -0.049571275711 0 0.82814383507 -0.050408750772 0 0.86831843853 -0.027972705662 0 
0.85266244411 -0.027349956334 0 0.80022287369 -0.058756262064 0 0.84782171249 -0.028627812862 0 
0.73800802231 -0.095599621534 0 0.67191958427 -0.13278000057 0 0.69979631901 -0.11577929556 0 
0.93548738956 0.025295332074 0 0.93093550205 0.024507537484 0 0.8896535635 -0.0036096423864 0 
0.25608712435 -0.33258408308 0 0.31013131142 -0.30490082502 0 0.31142359972 -0.30300700665 0 
-0.19930067658 -0.5941054821 0 -0.21329012513 -0.60282456875 0 -0.24339750409 -0.61685162783 0 
0.18101803958 -0.38675498962 0 0.25080034137 -0.35054218769 0 0.1968255192 -0.37969917059 0 
-0.03999966383 -0.50988483429 0 -0.095719084144 -0.5385992527 0 -0.083088859916 -0.53313678503 0 
-0.22449585795 -0.60411214828 0 -0.1744351089 -0.57917094231 0 -0.20113331079 -0.59384357929 0 
-0.12711760402 -0.55377179384 0 -0.13622137904 -0.5595716238 0 -0.12994480133 -0.55945503712 0 
-0.15695376694 -0.57250010967 0 -0.18426266313 -0.58727449179 0 -0.25396499038 -0.62473708391 0 
-0.27111577988 -0.63206911087 0 -0.21218585968 -0.62196564674 0 -0.26766735315 -0.63960492611 0 
-0.23041364551 -0.62609434128 0 -0.39738354087 -0.68734276295 0 -0.39972546697 -0.69112378359 0 
-0.3946056366 -0.68672823906 0 -0.38619932532 -0.68190616369 0 -0.39140245318 -0.68630081415 0 
-0.38121181726 -0.68060028553 0 -0.38720500469 -0.67368787527 0 -0.38618850708 -0.67142802477 0 
-0.38771158457 -0.67463314533 0 1.1243730783 0.32918947935 0 1.1262594461 0.32635617256 0 
1.1056084633 0.34357565641 0 -0.15218493342 0.4708865881 0 -0.13205993176 0.47564017773 0 
-0.14569240808 0.47246348858 0 -0.11968335509 0.47822606564 0 0.0074363052845 0.49628520012 0 
0.027186900377 0.49809092283 0 0.004525333643 0.49612915516 0 1.0330474377 0.24313662946 0 
1.0232234001 0.22310589254 0 1.0218603611 0.22489766777 0 -0.075106233358 0.48079574108 0 
-0.049861937761 0.48466527462 0 -0.062795490026 0.4831482172 0 0.031194120646 0.4945640564 0 
0.02782997489 0.493968606 0 0.048656493425 0.49597257376 0 0.0310575068 0.49385082722 0 
0.0096069276333 0.49199390411 0 -0.10807940364 0.47612279654 0 -0.10305288434 0.47689020634 0 
-0.090559989214 0.47949123383 0 -0.070230931044 0.48396807909 0 -0.051244646311 0.48674738407 0 
-0.07578381896 0.48285067081 0 0.38405817747 0.50149357319 0 0.33566132188 0.50367951393 0 
0.36944508553 0.50225305557 0 -0.08508503437 0.48074924946 0 -0.10169512033 0.477663517 0 
-0.10820177197 0.4778752327 0 -0.091553539038 0.48073381186 0 -0.089689403772 0.481320858 0 
-0.073814302683 0.48365414143 0 -0.08275488019 0.48200595379 0 -0.089009553194 0.48046141863 0 
-0.10791119933 0.47684001923 0 -0.10316678882 0.47800821066 0 0.083460062742 0.5005698204 0 
0.083476692438 0.50071871281 0 0.064862877131 0.49932801723 0 -0.11518368125 0.47582602501 0 
-0.11457952857 0.47568511963 0 0.013198882341 0.49553704262 0 0.030072242022 0.49698114395 0 
0.011392980814 0.49519479275 0 -0.013228684664 0.49440908432 0 0.007471293211 0.49660980701 0 
0.008687287569 0.49667084217 0 -0.083358436823 0.48409605026 0 -0.08853545785 0.48306787014 0 
0.0056317150593 0.49336820841 0 -0.016948908567 0.49088251591 0 -0.0022956430912 0.49270248413 0 
0.28214815259 0.50141644478 0 0.29189822078 0.50162142515 0 0.31190377474 0.50092899799 0 
0.19821813703 0.50099003315 0 0.23978409171 0.50149798393 0 0.22263425589 0.50102746487 0 
0.26396670938 0.50377547741 0 0.23651733994 0.50364792347 0 0.22486183047 0.50377547741 0 
0.098423808813 0.49763387442 0 0.078312784433 0.49617373943 0 0.092111676931 0.49748128653 0 
0.20803761482 0.50255548954 0 0.17782840133 0.50215935707 0 0.18676748872 0.50214135647 0 
0.80853414536 0.44839000702 0 0.81437730789 0.44708752632 0 0.78765332699 0.45273536444 0 
0.30388662219 0.49660897255 0 0.3470068574 0.49579620361 0 0.32081818581 0.49654591084 0 